lammps testing 1 water molecules

3 atoms
2 bonds
1 angles

2 atom types
1 bond types
1 angle types

-3.0 3.0 xlo xhi
-3.0 3.0 ylo yhi
-3.0 3.0 zlo zhi

Masses

1 15.999
2 1.008


Atoms
#Atom_ID Group_ID Atom_type  Charge X       Y      Z
1        1        1         -0.82   0.0     0.0    0.0
2        1        2          0.41   0.7574  0.5863 0.0
3        1        2          0.41  -0.7574  0.5863 0.0

Bonds
# bond_ID Bond_type Atom_A Atom_B
1 1 1 2
2 1 1 3

Angles
# angle_ID Angle_type Angle_A Angle_B
1 1 2 1 3
